/*---------------------------------------------------------------------------*\
Caelus 9.04
 Web:      www.caelus-cml.com 
\*---------------------------------------------------------------------------*/
FoamFile
{
    version     2.0;
    format      ascii;
    class       volScalarField;
    location    "0";
    object      T;
}
// * * * * * * * * * * * * * * * * * * * * * * * * * * * * * * * * * * * * * //

dimensions      [0 0 0 1 0 0 0];

internalField   nonuniform List<scalar> 
18564
(
-0.0820748942239
-0.0820748942264
-0.0820748942239
-0.0694479874202
-0.0937934984108
-0.0871595408052
-0.0871082007546
-0.0820748942289
-0.0820748942264
-0.0694479874223
-0.0939923464205
-0.087194070013
-0.0820748942239
-0.0694479874202
-0.0942026966184
-0.0875036179432
-0.0568210806166
-0.0743221674398
-0.074247786695
-0.1041941192
-0.097223537892
-0.0969680697664
-0.0820748942313
-0.0820748942289
-0.0694479874244
-0.0941271473022
-0.0872675254816
-0.0820748942264
-0.0694479874223
-0.0945022605712
-0.0568210806183
-0.0742811632508
-0.10473492831
-0.0972161162198
-0.0820748942239
-0.0694479874202
-0.0946110775573
-0.0879112759747
-0.0568210806166
-0.0746557507331
-0.105323398754
-0.0981874233937
-0.0441941738129
-0.0613061632611
-0.0612172815005
-0.0839403684446
-0.083620786901
-0.114603605941
-0.10728841542
-0.106830797894
-0.0820748942338
-0.0820748942313
-0.0694479874265
-0.0942364721227
-0.0873278739673
-0.0820748942289
-0.0694479874244
-0.0947062975981
-0.0568210806199
-0.0743026082594
-0.105128482554
-0.0974251964497
-0.0820748942264
-0.0694479874223
-0.0949654853397
-0.0568210806183
-0.106143130065
-0.0441941738142
-0.0612078444535
-0.0837141310192
-0.115486520634
-0.107241165873
-0.0820748942239
-0.0694479874202
-0.095041366716
-0.0883591795751
-0.0568210806166
-0.0750550417729
-0.106495189967
-0.0993263239167
-0.0441941738129
-0.0616179010381
-0.0848679841387
-0.116449146568
-0.108873178704
-0.0315672670092
-0.0480695479593
-0.0479779386199
-0.0701267738662
-0.0697712197237
-0.0935597975809
-0.0929970357685
-0.125019558388
-0.117354005816
-0.116695717642
-0.0820748942363
-0.0820748942338
-0.0694479874285
-0.0943312577302
-0.0873748648417
-0.0820748942313
-0.0694479874265
-0.0948600167599
-0.0568210806216
-0.074311456443
-0.105444081002
-0.0975949591665
-0.0820748942289
-0.0694479874244
-0.0952356040058
-0.0568210806199
-0.106748788021
-0.0441941738155
-0.0611870452202
-0.0837705754317
-0.1161361106
-0.107586151858
-0.0820748942264
-0.0694479874223
-0.095410410371
-0.0568210806183
-0.107439230014
-0.0441941738142
-0.117793050637
-0.0315672670101
-0.0479397624451
-0.0697401533023
-0.0931505583904
-0.12624444979
-0.117268516907
-0.0820748942239
-0.0694479874203
-0.0954492900936
-0.08879970619
-0.0568210806166
-0.0754997981202
-0.107723531
-0.10057320361
-0.0441941738129
-0.0619950005361
-0.0859741575102
-0.118383460091
-0.110745289063
-0.0315672670092
-0.0483428130533
-0.0709870439338
-0.0950827135727
-0.127578843702
-0.119560468773
-0.0189403602055
-0.034586610018
-0.0345064984272
-0.0556649944673
-0.0553124700383
-0.0789491410521
-0.0783290914239
-0.103180149437
-0.102375746449
-0.13544036968
-0.127420177369
-0.1265623738
-0.0820748942387
-0.0820748942363
-0.0694479874307
-0.0944138033323
-0.087408198706
-0.0820748942338
-0.0694479874285
-0.094986482266
-0.0568210806233
-0.0743076133389
-0.105708922421
-0.0977248962783
-0.0820748942313
-0.0694479874265
-0.0954419856661
-0.0568210806216
-0.107214462032
-0.0441941738169
-0.0611543277866
-0.0837897792861
-0.116655737641
-0.107865698675
-0.0820748942288
-0.0694479874244
-0.0957175613893
-0.05682108062
-0.108220089231
-0.0441941738155
-0.118800521064
-0.0315672670111
-0.0478914658381
-0.0696743469441
-0.0932423105196
-0.127148199944
-0.117749610603
-0.0820748942264
-0.0694479874223
-0.095809048276
-0.0568210806183
-0.108691807558
-0.0441941738142
-0.119922278382
-0.0315672670101
-0.129449351658
-0.0189403602061
-0.0344577137944
-0.0551992962114
-0.0782765782564
-0.102589604414
-0.137006991379
-0.127297686831
-0.0820748942239
-0.0694479874202
-0.0957726272246
-0.0891620131265
-0.0568210806166
-0.0759447265648
-0.108885734572
-0.101792553955
-0.0441941738129
-0.0624209291329
-0.0872000802822
-0.120410312589
-0.112794232998
-0.0315672670092
-0.0486766268556
-0.0720228158681
-0.0968981278598
-0.130275092044
-0.122167213948
-0.0189403602055
-0.0348009557056
-0.0564133850577
-0.0803593894924
-0.105299296132
-0.138711659943
-0.130248992832
-0.00631345340185
-0.0208681914986
-0.0208136681868
-0.0404857734328
-0.0401840080849
-0.0632627250552
-0.0626515810139
-0.0877727195128
-0.0868898837758
-0.112801196292
-0.111756381678
-0.145864915128
-0.137486826282
-0.136430441847
-0.0820748942412
-0.0820748942387
-0.0694479874327
-0.0944833324943
-0.0874278656892
-0.0820748942363
-0.0694479874306
-0.095094624004
-0.0568210806251
-0.0742909717488
-0.10593220372
-0.097814714322
-0.0820748942338
-0.0694479874286
-0.0956046544731
-0.0568210806233
-0.107591323238
-0.0441941738182
-0.0611098016561
-0.0837716292978
-0.117089563735
-0.10807903384
-0.0820748942313
-0.0694479874265
-0.0959617266736
-0.0568210806216
-0.108840954619
-0.0441941738169
-0.119577562072
-0.031567267012
-0.0478326555879
-0.0695736481791
-0.0932722154225
-0.127870222124
-0.118139196546
-0.0820748942288
-0.0694479874244
-0.0961262676185
-0.0568210806199
-0.109562309945
-0.0441941738155
-0.121215216454
-0.0315672670111
-0.130858817078
-0.0189403602066
-0.0344009760803
-0.0550553798183
-0.0781660053174
-0.102716878786
-0.138163554406
-0.127915035398
-0.0820748942264
-0.0694479874223
-0.0961108561541
-0.0568210806183
-0.109812628082
-0.0441941738142
-0.121983535751
-0.0315672670101
-0.132411894916
-0.0189403602061
-0.141110311737
-0.00631345340202
-0.0207737508366
-0.0400417127925
-0.0624634760465
-0.0868160471145
-0.112030690562
-0.147772981919
-0.137328329522
-0.0820748942239
-0.0694479874202
-0.0959506689068
-0.0893686685356
-0.0568210806166
-0.0763174225285
-0.109807490825
-0.10278821613
-0.0441941738129
-0.0628543262825
-0.0884170436151
-0.122328503048
-0.114796457117
-0.0315672670092
-0.0490585211742
-0.0731853386782
-0.0989090674
-0.13310069686
-0.125020317175
-0.0189403602055
-0.0350648258247
-0.0573226137754
-0.0820565484623
-0.107825600377
-0.142169428697
-0.133591453966
-0.00631345340185
-0.021004121649
-0.0410685472117
-0.0644877499182
-0.0897339486416
-0.115517285977
-0.149846963752
-0.140938531173
0.00631345340185
-0.00697720288567
-0.00695798637657
-0.0246255268623
-0.0244223170864
-0.0463873913497
-0.0458661438827
-0.0708619064261
-0.0699939825068
-0.0965971310153
-0.0954529114851
-0.12242276636
-0.121138556704
-0.156292381044
-0.147553871139
-0.146299681251
-0.0820748942436
-0.0820748942412
-0.0694479874348
-0.0945373313358
-0.0874313167189
-0.0820748942387
-0.0694479874327
-0.0951849637446
-0.0568210806268
-0.0742617128966
-0.106115140511
-0.0978641309907
-0.0820748942362
-0.0694479874306
-0.0957346954067
-0.0568210806251
-0.10790525246
-0.0441941738195
-0.061053605735
-0.0837163087994
-0.117453521965
-0.108225843671
-0.0820748942338
-0.0694479874286
-0.0961522324783
-0.0568210806233
-0.109334348278
-0.0441941738182
-0.120204291448
-0.031567267013
-0.0477636253085
-0.0694384701768
-0.0932401282744
-0.128472210605
-0.118436227828
-0.0820748942313
-0.0694479874265
-0.0963875590221
-0.0568210806216
-0.110285804459
-0.0441941738169
-0.122250542749
-0.031567267012
-0.131946889688
-0.0189403602072
-0.0343360523368
-0.0548808466257
-0.0779975606734
-0.102757714509
-0.139086746446
-0.128414840121
-0.0820748942289
-0.0694479874244
-0.0964208849908
-0.0568210806199
-0.110701952305
-0.0441941738155
-0.123419550704
-0.0315672670111
-0.134217766275
-0.0189403602066
-0.142921927022
-0.0063134534022
-0.0207288302593
-0.039875309151
-0.0622240388121
-0.0866608619162
-0.112193637736
-0.149181360804
-0.138082040724
-0.0820748942264
-0.0694479874223
-0.0962683463525
-0.0568210806183
-0.110662773267
-0.0441941738142
-0.123828344027
-0.0315672670101
-0.135282501789
-0.0189403602061
-0.144906295965
-0.00631345340202
-0.152774770334
0.00631345340203
-0.00694263322234
-0.0243067673229
-0.0456302695272
-0.0697309825167
-0.0953578334782
-0.121473401093
-0.158541609063
-0.14736018728
-0.0820748942239
-0.0694479874202
-0.0959498042864
-0.0893686685277
-0.0568210806166
-0.0765332189336
-0.110316501776
-0.103351877977
-0.0441941738129
-0.0632239236038
-0.0894268176884
-0.123850983135
-0.116429606613
-0.0315672670092
-0.0494531409338
-0.0743572610042
-0.100903470752
-0.135775882474
-0.127807965132
-0.0189403602055
-0.0353697476945
-0.0583552297345
-0.0839602469754
-0.110624093786
-0.145793921555
-0.13725021832
-0.00631345340185
-0.0211722156578
-0.0417816697205
-0.0659752561954
-0.0920943173663
-0.118755701398
-0.154065945741
-0.145017563475
0.00631345340185
-0.00702338130505
-0.0249927226671
-0.0473399527415
-0.0725645526726
-0.0991100773518
-0.125736370069
-0.160984271878
-0.151628922662
0.0189403602055
0.00697720271945
0.00695798624911
-0.00826908315767
-0.00819771589388
-0.0283848068366
-0.0280345275191
-0.0522904665423
-0.051551486502
-0.0784620012047
-0.0773388295303
-0.105422107567
-0.104017689523
-0.132044730036
-0.130521985554
-0.166722163778
-0.157621248897
-0.156169907634
-0.0820748942436
-0.0694479874369
-0.0945780629117
-0.0874232809766
-0.0820748942412
-0.0694479874348
-0.0952563185441
-0.0568210806285
-0.0742198741215
-0.106252208272
-0.0978675821474
-0.0820748942387
-0.0694479874327
-0.0958344815656
-0.0568210806268
-0.108164726082
-0.0441941738209
-0.0609861625558
-0.0836240196654
-0.117750190017
-0.108305569058
-0.0820748942362
-0.0694479874306
-0.0962968176118
-0.0568210806251
-0.109727546536
-0.0441941738195
-0.120723631971
-0.031567267014
-0.0476847244381
-0.069269617754
-0.0931464951854
-0.128976756912
-0.118640348882
-0.0820748942338
-0.0694479874285
-0.0965927537706
-0.0568210806233
-0.110862745108
-0.0441941738182
-0.123074460543
-0.031567267013
-0.132823122999
-0.0189403602078
-0.0342633152938
-0.0546765849161
-0.0777719514368
-0.102711926
-0.139856255382
-0.128795769595
-0.0820748942313
-0.0694479874265
-0.0966828052089
-0.0568210806216
-0.111468764195
-0.0441941738168
-0.124622653659
-0.0315672670121
-0.135667602063
-0.0189403602072
-0.144320836573
-0.0063134534024
-0.0206787887776
-0.0396851157055
-0.0619338545516
-0.086424815642
-0.112245559514
-0.150304781404
-0.138692192289
-0.0820748942289
-0.0694479874244
-0.0965677066644
-0.0568210806199
-0.111529265878
-0.0441941738155
-0.125292293823
-0.0315672670111
-0.137285341567
-0.0189403602066
-0.147225674739
-0.0063134534022
-0.154988662878
0.0063134534022
-0.00692559293684
-0.0241760339374
-0.045354153512
-0.0693960776016
-0.0951581354545
-0.121672127379
-0.160201048993
-0.148250339883
-0.0820748942264
-0.0694479874223
-0.0962647874323
-0.0568210806183
-0.11111399328
-0.0441941738142
-0.125228768005
-0.0315672670101
-0.137852389621
-0.0189403602061
-0.148586702046
-0.00631345340202
-0.157404277509
0.00631345340203
-0.164441917064
0.0189403602061
0.0069426331092
-0.00815342667417
-0.0278432187245
-0.0512219834157
-0.0770009514103
-0.103901424513
-0.130917427058
-0.169312290081
-0.157393062137
-0.0820748942239
-0.0694479874202
-0.0957719327552
-0.0891620131056
-0.0568210806166
-0.0765332189172
-0.110314900047
-0.103351877952
-0.0441941738129
-0.0634410088
-0.0900059349435
-0.124692475807
-0.117352981984
-0.0315672670092
-0.0497950594053
-0.0753455841387
-0.102556335709
-0.137900465894
-0.130080994815
-0.0189403602055
-0.0356886281224
-0.0594111280951
-0.0858774651485
-0.113399241973
-0.149226732687
-0.140824988565
-0.00631345340185
-0.0213676194489
-0.0425992228541
-0.0676635686525
-0.094742116905
-0.122343531366
-0.158489408542
-0.149483112448
0.00631345340185
-0.00708057427158
-0.0254439819049
-0.0485049430486
-0.0746321892303
-0.102134975047
-0.129687847481
-0.165964231168
-0.156445226273
0.0189403602055
0.00702338112862
-0.00839333559418
-0.0289842220825
-0.0536136651267
-0.0806429691983
-0.108487349218
-0.135956327255
-0.172123211658
-0.162320048799
0.0315672670092
0.0208681913171
0.0208136680466
0.00826908267328
0.00819771552368
-0.00956170648417
-0.00943879729313
-0.0321451896995
-0.0316491355789
-0.0581943933519
-0.0572391433934
-0.0860626520328
-0.0846855425446
-0.114247458577
-0.112583863045
-0.141666990741
-0.139906449525
-0.177153806675
-0.167688911841
-0.166040975615
-0.0820748942436
-0.0694479874369
-0.0953057434124
-0.0568210806302
-0.0741656738498
-0.10635122877
-0.0978364393158
-0.0820748942412
-0.0694479874348
-0.0959026363646
-0.0568210806285
-0.108370208683
-0.0441941738222
-0.060907758682
-0.0834952807935
-0.117970810442
-0.108309568767
-0.0820748942387
-0.0694479874327
-0.0963973678121
-0.0568210806268
-0.110033207972
-0.0441941738208
-0.121151866328
-0.0315672670149
-0.0475965584054
-0.0690679545923
-0.0929915404826
-0.129387342533
-0.1187507197
-0.0820748942362
-0.0694479874307
-0.0967442418397
-0.0568210806251
-0.111308302566
-0.0441941738195
-0.123730510117
-0.0315672670139
-0.133547568044
-0.0189403602084
-0.0341831952774
-0.0544439109407
-0.0774906255914
-0.102580203903
-0.140501299505
-0.129057409483
-0.0820748942338
-0.0694479874285
-0.0968909636661
-0.0568210806233
-0.112087385672
-0.0441941738182
-0.125585808389
-0.031567267013
-0.136821948881
-0.0189403602078
-0.145446320616
-0.0063134534026
-0.0206239265286
-0.0394722094057
-0.0615944022377
-0.0861089041252
-0.112186223231
-0.151241302248
-0.139157159318
-0.0820748942313
-0.0694479874265
-0.0968239721092
-0.0568210806217
-0.112296800017
-0.0441941738169
-0.126565063985
-0.031567267012
-0.138968269295
-0.0189403602072
-0.149090094559
-0.0063134534024
-0.15669829705
0.0063134534024
-0.00690682848977
-0.0240304173211
-0.0450386154782
-0.0689902749269
-0.0948545767276
-0.121735241356
-0.161523960686
-0.148970930102
-0.0820748942289
-0.0694479874244
-0.0965623680967
-0.0568210806199
-0.111953091301
-0.0441941738155
-0.126654164197
-0.0315672670111
-0.139892458878
-0.0189403602066
-0.151157214004
-0.0063134534022
-0.160237566064
0.0063134534022
-0.167058191434
0.0189403602066
0.00692559283827
-0.00810400608553
-0.0276265629284
-0.0508361173741
-0.0765706055549
-0.103657278087
-0.131152007952
-0.171222209021
-0.158419713347
-0.0820748942264
-0.0694479874223
-0.0961060101758
-0.0568210806183
-0.111108428207
-0.0441941738142
-0.12597461741
-0.0315672670101
-0.139804204884
-0.0189403602061
-0.151882372039
-0.00631345340202
-0.161894795258
0.00631345340203
-0.169905001612
0.0189403602061
-0.176111169769
0.0315672670101
0.0207737507119
0.00815342634518
-0.00936550925738
-0.0313819876349
-0.0568159725574
-0.0842727919072
-0.112446446838
-0.140362532905
-0.180084597554
-0.167426798086
-0.0820748942239
-0.0694479874203
-0.0954483735799
-0.0887997061569
-0.0568210806166
-0.0763174224829
-0.109804824894
-0.102788216058
-0.0441941738129
-0.0634410087806
-0.0900059348958
-0.124690016065
-0.117352981941
-0.0315672670092
-0.049998394499
-0.0759197866128
-0.103503036866
-0.139075355305
-0.131365529515
-0.0189403602055
-0.035968314362
-0.060314946758
-0.0874924655034
-0.115698561255
-0.151954290847
-0.143739352892
-0.00631345340185
-0.0215734466734
-0.0434447390249
-0.0693883843154
-0.0974086337131
-0.125901578008
-0.162680259376
-0.153846179286
0.00631345340185
-0.00714720465953
-0.0259642979402
-0.0498397844392
-0.0769792882861
-0.105528891639
-0.134066325402
-0.171186716307
-0.161718425497
0.0189403602055
0.00708057411303
-0.00854628014046
-0.0297205065755
-0.0552321721149
-0.0832920570495
-0.11217779272
-0.140621636046
-0.177863962422
-0.167874211266
0.0315672670092
0.0210041214597
0.00839333508373
-0.0097643722181
-0.0329774053835
-0.0598888192347
-0.0887224871226
-0.117865480063
-0.146177000742
-0.183263493121
-0.173011821939
0.0441941738129
0.0345866098816
0.0345064983331
0.0246255263316
0.0244223166737
0.00956170568034
0.00943879667958
-0.0108547425528
-0.0106807741353
-0.0359061846698
-0.0352654350313
-0.0640987892424
-0.0629285241449
-0.0936636195046
-0.092033710223
-0.123073050406
-0.121151165868
-0.151289478365
-0.149291777678
-0.187586958847
-0.177756825059
-0.175912767887
-0.0820748942436
-0.0694479874369
-0.0959352728671
-0.0568210806302
-0.108517572485
-0.0441941738235
-0.06081890238
-0.083330915904
-0.11812874828
-0.108255902894
-0.0820748942412
-0.0694479874348
-0.09645182652
-0.0568210806285
-0.110254152699
-0.0441941738222
-0.121490809974
-0.0315672670158
-0.0474996065838
-0.068834638243
-0.092776238948
-0.129691820986
-0.118755578015
-0.0820748942387
-0.0694479874327
-0.0968414235041
-0.0568210806268
-0.111632468222
-0.0441941738208
-0.124241453671
-0.0315672670149
-0.134144244796
-0.0189403602089
-0.0340963235012
-0.0541842192623
-0.0771548985889
-0.102362797833
-0.141025920548
-0.129198636118
-0.0820748942362
-0.0694479874307
-0.0970437814609
-0.0568210806251
-0.112557794924
-0.0441941738195
-0.1263318715
-0.0315672670139
-0.13774064949
-0.0189403602084
-0.146375628106
-0.0063134534028
-0.0205645835484
-0.0392380429209
-0.0612079490628
-0.085715205132
-0.11201655208
-0.152026762439
-0.139476455872
-0.0820748942338
-0.0694479874285
-0.0970291529583
-0.0568210806233
-0.112923846884
-0.0441941738182
-0.127596777665
-0.031567267013
-0.1403175429
-0.0189403602078
-0.150574836384
-0.0063134534026
-0.158072854634
0.0063134534026
-0.0068864521321
-0.0238707703445
-0.0446854372267
-0.0685156428177
-0.0944484391744
-0.121662459017
-0.162627085082
-0.149520031856
-0.0820748942313
-0.0694479874265
-0.0968170272681
-0.0568210806216
-0.112707325728
-0.0441941738168
-0.12792767429
-0.031567267012
-0.141671482672
-0.0189403602072
-0.153320138153
-0.0063134534024
-0.162516650625
0.0063134534024
-0.16907848781
0.0189403602072
0.00690682840618
-0.00804956989125
-0.027385243865
-0.050395177871
-0.0760491964314
-0.103286262502
-0.131226387477
-0.172744024256
-0.159250808176
-0.0820748942288
-0.0694479874244
-0.0964116005429
-0.0568210806199
-0.111943572312
-0.0441941738155
-0.127355646894
-0.0315672670111
-0.141789922037
-0.0189403602066
-0.154499507836
-0.0063134534022
-0.165033554466
0.0063134534022
-0.173252491939
0.0189403602066
-0.179129912539
0.0315672670111
0.0207288301507
0.0081040057989
-0.00928365288598
-0.0310793386035
-0.0563203249871
-0.0837470170052
-0.112157894013
-0.140633022349
-0.182244539695
-0.168589989043
-0.0820748942264
-0.0694479874223
-0.0958044177058
-0.0568210806183
-0.110651906567
-0.0441941738142
-0.125966859345
-0.0315672670101
-0.140845164588
-0.0189403602061
-0.154386267887
-0.00631345340202
-0.165916723028
0.00631345340203
-0.17520585537
0.0189403602061
-0.182407869253
0.0315672670101
-0.187782100251
0.0441941738142
0.0344577137106
0.0243067669562
0.00936550871212
-0.0105784491498
-0.0349223930996
-0.0624116539609
-0.0915460864404
-0.120992621997
-0.14980853543
-0.190858211962
-0.177461269668
-0.0820748942239
-0.0694479874202
-0.0950403728732
-0.0883591795298
-0.0568210806166
-0.0759447264934
-0.108882558797
-0.101792553843
-0.0441941738129
-0.0632239235501
-0.0894268175517
-0.123846382981
-0.116429606491
-0.0315672670092
-0.0499983944795
-0.0759197865589
-0.103503036787
-0.139071959293
-0.131365529454
-0.0189403602055
-0.0361362128748
-0.0608462385514
-0.0884296591154
-0.117015041039
-0.153463161985
-0.14538584557
-0.00631345340185
-0.0217553167981
-0.0441770599691
-0.0708633721005
-0.0996545703504
-0.128849355492
-0.166011368857
-0.157402785418
0.00631345340185
-0.00721759087714
-0.0265062057655
-0.0512192691321
-0.0793773910522
-0.108947250217
-0.138408732436
-0.176135890878
-0.166870618397
0.0189403602055
0.00714720451936
-0.00872303705918
-0.030569097719
-0.0570871342285
-0.0863000397174
-0.116319287385
-0.145791755045
-0.183885505008
-0.17395573919
0.0315672670092
0.0211722154866
0.00854627968431
-0.0100137373172
-0.0339998714987
-0.0619620113602
-0.0919540431191
-0.122222289039
-0.151556779376
-0.189764886288
-0.179304343482
0.0441941738129
0.0348009555646
0.024992722111
0.00976437137344
-0.0111360275254
-0.0369716018419
-0.0661649045341
-0.0968027852858
-0.127244280107
-0.15639827877
-0.194404888462
-0.183704176351
0.0568210806166
0.0480695478235
0.0479779385277
0.040485773044
0.0401840078091
0.028384805956
0.0280345268341
0.0108547414287
0.0106807732783
-0.0121480024739
-0.0119233749775
-0.0396674922686
-0.0388829720396
-0.0700034099968
-0.0686192225069
-0.101264745756
-0.0993830325958
-0.131898792465
-0.12971939434
-0.160912144151
-0.158677834126
-0.198021347169
-0.187824964189
-0.185785188049
-0.0820748942436
-0.0694479874369
-0.0964568412873
-0.0568210806302
-0.110389379829
-0.0441941738235
-0.121734569109
-0.0315672670168
-0.0473945716383
-0.0685712595836
-0.0925020010723
-0.129909083016
-0.118679717121
-0.0820748942412
-0.0694479874348
-0.0968807309491
-0.0568210806285
-0.111839051558
-0.0441941738222
-0.124613954671
-0.0315672670158
-0.134616114642
-0.0189403602095
-0.0340032205972
-0.0538991437659
-0.0767667810073
-0.102061123172
-0.141414468235
-0.129204534907
-0.0820748942387
-0.0694479874327
-0.0971383480426
-0.0568210806268
-0.112883170891
-0.0441941738209
-0.126878735589
-0.0315672670149
-0.138456464712
-0.0189403602089
-0.147140486789
-0.00631345340297
-0.0205012262992
-0.0389841334243
-0.0607766960274
-0.0852454946109
-0.111736824137
-0.152665499757
-0.13964867306
-0.0820748942363
-0.0694479874307
-0.0971802880546
-0.0568210806251
-0.113399377975
-0.0441941738195
-0.12838536854
-0.031567267014
-0.141363844519
-0.0189403602084
-0.151756060885
-0.0063134534028
-0.159206835424
0.0063134534028
-0.00686458988328
-0.023698195472
-0.0442970841213
-0.0679753904572
-0.0939424222111
-0.12145492817
-0.163552890571
-0.149897077933
-0.0820748942338
-0.0694479874286
-0.0970203476825
-0.0568210806233
-0.113328085824
-0.0441941738182
-0.128973100432
-0.031567267013
-0.143116131541
-0.0189403602078
-0.155055500315
-0.0063134534026
-0.16433178777
0.0063134534026
-0.170701994262
0.0189403602078
0.00688645206364
-0.0079904353699
-0.0271206693304
-0.0499016526665
-0.0754393814738
-0.102789944351
-0.13114022744
-0.174013420139
-0.159884112923
-0.0820748942313
-0.0694479874265
-0.0966694291717
-0.0568210806216
-0.112694033862
-0.0441941738169
-0.128608041725
-0.0315672670121
-0.143569652431
-0.0189403602072
-0.156784997776
-0.0063134534024
-0.167676613139
0.0063134534024
-0.175946319611
0.0189403602072
-0.181460839656
0.031567267012
0.0206787886854
0.00804956964795
-0.0091934841504
-0.0307422343336
-0.0557539396777
-0.0831100028564
-0.111719456468
-0.140718718636
-0.183964783414
-0.169531635878
-0.0820748942289
-0.0694479874244
-0.0961168087827
-0.05682108062
-0.111508714171
-0.0441941738155
-0.127341735656
-0.0315672670111
-0.142769380375
-0.0189403602066
-0.156933193351
-0.0063134534022
-0.169111558907
0.0063134534022
-0.178913268229
0.0189403602066
-0.186269779518
0.0315672670111
-0.191203383975
0.0441941738155
0.0344009760073
0.0241760336179
0.00928365241086
-0.0104641227459
-0.0345337018139
-0.0618061984823
-0.0909248862136
-0.120659690334
-0.150114972229
-0.193267815481
-0.178761029587
-0.0820748942264
-0.0694479874223
-0.0954063703445
-0.0568210806183
-0.109800620684
-0.0441941738142
-0.125211786009
-0.0315672670101
-0.140835092537
-0.0189403602061
-0.155722621198
-0.00631345340202
-0.16897315338
0.00631345340203
-0.179954376433
0.0189403602061
-0.188519224929
0.0315672670101
-0.194912441978
0.0441941738142
-0.199454387126
0.0568210806183
0.047939762363
0.0400417125471
0.0278432181158
0.010578448388
-0.0117919879256
-0.038463996562
-0.0680086270664
-0.0988205318079
-0.129539738233
-0.159255289868
-0.201632890423
-0.187496374371
-0.0820748942239
-0.0694479874202
-0.0946099395939
-0.0879112759148
-0.0568210806166
-0.0754997980259
-0.10772036975
-0.100573203456
-0.0441941738129
-0.0628543261998
-0.0884170433998
-0.122323130431
-0.114796456926
-0.0315672670092
-0.0497950593516
-0.075345583985
-0.102556335482
-0.137893947954
-0.130080994643
-0.0189403602055
-0.0361362128536
-0.0608462384967
-0.0884296590268
-0.117015040928
-0.153458775218
-0.145385845492
-0.00631345340185
-0.0218651268018
-0.0446115312806
-0.0717296094402
-0.100957631667
-0.130536821908
-0.167854613485
-0.15941168039
0.00631345340185
-0.0072799788553
-0.0269790531481
-0.0524132684682
-0.0814282972875
-0.111826588707
-0.142006213078
-0.180070948873
-0.171070037185
0.0189403602055
0.00721759076562
-0.00890768243566
-0.0314524423613
-0.0590046615797
-0.0893741366699
-0.120491178131
-0.150919540311
-0.189593205317
-0.17989764928
0.0315672670092
0.0213676192978
0.00872303665866
-0.0103018386606
-0.0351787540007
-0.0643389937993
-0.0956244108085
-0.127112452426
-0.157519303692
-0.196585510678
-0.186194735469
0.0441941738129
0.0350648256983
0.0254439814059
0.0100137365629
-0.0114822282205
-0.0382810682666
-0.0686936843463
-0.100617631402
-0.132268132717
-0.162493063936
-0.201666802752
-0.190735484989
0.0568210806166
0.0483428129181
0.0410685467956
0.0289842211597
0.0111360263465
-0.0125080495902
-0.0409664288102
-0.0724416165273
-0.104883661965
-0.136623622187
-0.166620080729
-0.205547216967
-0.194397061365
0.0694479874202
0.0613061631133
0.0612172813972
0.0556649940861
0.0553124697675
0.0463873907076
0.0458661434252
0.0321451884682
0.0316491346213
0.0121480010287
0.0119233738766
-0.0134413728102
-0.0131664281014
-0.0434289273138
-0.0425014415661
-0.0759081024054
-0.0743109498946
-0.108865930985
-0.106733285941
-0.140724626883
-0.138288390102
-0.170534956352
-0.168064509386
-0.208456756689
-0.197893313289
-0.195658155742
-0.0820748942436
-0.0694479874369
-0.0968598390931
-0.0568210806302
-0.111933010478
-0.0441941738235
-0.124849405543
-0.0315672670168
-0.134955079871
-0.01894036021
-0.0339045926874
-0.0535907812301
-0.0763289387166
-0.101677167806
-0.141691340112
-0.129106672326
-0.0820748942412
-0.0694479874348
-0.0971692469871
-0.0568210806285
-0.113065998185
-0.0441941738222
-0.127235708075
-0.0315672670158
-0.138979654168
-0.0189403602095
-0.147744855941
-0.00631345340315
-0.0204342418058
-0.0387121555512
-0.0603034199761
-0.084702625908
-0.111348886108
-0.153138272681
-0.139655721475
-0.0820748942387
-0.0694479874327
-0.0972742414863
-0.0568210806268
-0.113720610711
-0.0441941738208
-0.128937618595
-0.0315672670149
-0.142132838897
-0.0189403602089
-0.152676461102
-0.00631345340297
-0.160139665537
0.00631345340298
-0.00684141071102
-0.0235138311456
-0.0438759781735
-0.0673725373386
-0.0933387691451
-0.121112958384
-0.16430580339
-0.150100373473
-0.0820748942363
-0.0694479874307
-0.0971693850899
-0.0568210806251
-0.11379979594
-0.0441941738195
-0.129770352353
-0.031567267014
-0.144222493715
-0.0189403602084
-0.156401887527
-0.0063134534028
-0.165775457445
0.0063134534028
-0.172040500521
0.0189403602084
0.00686458983012
-0.00792700591662
-0.0268346991937
-0.0493590144179
-0.0747453064433
-0.102171639541
-0.130894894881
-0.175079510754
-0.160318971752
-0.0820748942338
-0.0694479874286
-0.096874259867
-0.0568210806233
-0.113311352758
-0.0441941738182
-0.12964372361
-0.031567267013
-0.145033207965
-0.0189403602078
-0.158642512004
-0.0063134534026
-0.169798066448
0.0063134534026
-0.17809187103
0.0189403602078
-0.183333206933
0.031567267013
0.020623926453
0.00799043517054
-0.00909552637933
-0.0303726392185
-0.0551200113548
-0.0823649961394
-0.11113298486
-0.140619227442
-0.185400177553
-0.170249191851
-0.0820748942313
-0.0694479874265
-0.0963735637075
-0.0568210806217
-0.112267165004
-0.0441941738169
-0.128588144188
-0.031567267012
-0.144520077449
-0.0189403602072
-0.159219320696
-0.0063134534024
-0.171903674357
0.0063134534024
-0.182036573781
0.0189403602072
-0.189378422899
0.031567267012
-0.193844929802
0.0441941738168
0.0343360522748
0.02403041705
0.00919348374711
-0.0103381834881
-0.0341007553849
-0.0611143323559
-0.0901722633328
-0.120153852815
-0.150212021406
-0.195186098498
-0.179813262462
-0.0820748942289
-0.0694479874244
-0.0957094387867
-0.0568210806199
-0.110678877784
-0.0441941738155
-0.126622116855
-0.0315672670111
-0.142750942993
-0.0189403602066
-0.158190801988
-0.0063134534022
-0.172081875818
0.0063134534022
-0.183727354958
0.0189403602066
-0.192795588377
0.0315672670111
-0.199288939248
0.0441941738155
-0.203278273373
0.0568210806199
0.0478914657663
0.0398753089369
0.027626562398
0.0104641220823
-0.0116451687464
-0.0379892274894
-0.0672933416473
-0.0981039055931
-0.1291624459
-0.15959770215
-0.204291864586
-0.188932723679
-0.0820748942264
-0.0694479874223
-0.0949619917543
-0.0568210806183
-0.108680719892
-0.0441941738142
-0.123808964413
-0.0315672670101
-0.139781025101
-0.0189403602061
-0.155710153861
-0.00631345340202
-0.170605080223
0.00631345340203
-0.183563654994
0.0189403602061
-0.193994584127
0.0315672670101
-0.201834425485
0.0441941738142
-0.207418392095
0.0568210806183
-0.211127784908
0.0694479874223
0.0612078443616
0.0551992959703
0.04563026912
0.0313819867841
0.0117919869473
-0.0130059614598
-0.0420065029361
-0.0736066078029
-0.106095902787
-0.138087631819
-0.168702680321
-0.212408445536
-0.197532027387
-0.0820748942239
-0.0694479874202
-0.0942016806647
-0.0875036178686
-0.0568210806166
-0.0750550416566
-0.106492196455
-0.099326323719
-0.0441941738129
-0.0624209290256
-0.0872000799951
-0.12040503856
-0.112794232736
-0.0315672670092
-0.0494531408527
-0.0743572607652
-0.100903470394
-0.13576834326
-0.127807964861
-0.0189403602055
-0.0359683143039
-0.0603149466041
-0.0874924652496
-0.115698560937
-0.151945860126
-0.143739352669
-0.00631345340185
-0.0218651267728
-0.0446115312213
-0.0717296093502
-0.100957631544
-0.130536821767
-0.167849196175
-0.159411680294
0.00631345340185
-0.00731774403483
-0.0272612277925
-0.0531211859315
-0.0826327341477
-0.113497066668
-0.144065364257
-0.18224883997
-0.173441578016
0.0189403602055
0.00727997878059
-0.00906933059555
-0.0322229008919
-0.060664794237
-0.0920036298438
-0.124005426973
-0.155167521389
-0.194132495213
-0.184740238517
0.0315672670092
0.021573446553
0.0089076821193
-0.0106026880221
-0.0364064449705
-0.0667970319084
-0.0993762643492
-0.13203903321
-0.163433187341
-0.203051884897
-0.192926784
0.0441941738129
0.0353697475844
0.0259642975013